<?xml version="1.0" encoding="UTF-8"?>

<!-- generated on 2024-07-10 13:18:44 by Eclipse SUMO sumo Version 1.20.0
<configuration xmlns:xsi="http://www.w3.org/2001/XMLSchema-instance" xsi:noNamespaceSchemaLocation="http://sumo.dlr.de/xsd/sumoConfiguration.xsd">

    <input>
        <net-file value="osm.net.xml.gz"/>
        <route-files value="gtfs_pt_vehicles.add.xml"/>
        <additional-files value="osm.poly.xml.gz,gtfs_pt_stops.add.xml,pt_vtypes.xml"/>
    </input>

    <output>
        <emission-output value="co2sinbus.xml"/>
        <fcd-output value="fcdsinbus.xml"/>
        <tripinfo-output value="tripinfosinbus.xml"/>
        <edgedata-output value="edgedatasinbus.xml"/>
    </output>

    <time>
        <begin value="0"/>
        <end value="57600"/>
        <step-length value="1"/>
    </time>

    <processing>
        <ignore-route-errors value="true"/>
        <tls.actuated.jam-threshold value="30"/>
    </processing>

    <routing>
        <device.rerouting.adaptation-steps value="18"/>
        <device.rerouting.adaptation-interval value="10"/>
    </routing>

    <report>
        <verbose value="true"/>
        <duration-log.statistics value="true"/>
        <no-step-log value="true"/>
    </report>

    <gui_only>
        <gui-settings-file value="osm.view.xml"/>
    </gui_only>

</configuration>
-->

<tripinfos xmlns:xsi="http://www.w3.org/2001/XMLSchema-instance" xsi:noNamespaceSchemaLocation="http://sumo.dlr.de/xsd/tripinfo_file.xsd">
    <tripinfo id="cd30b9b7-5752-482c-a455-5890e73a7e8e.0" depart="0.00" departLane="39525772#3_0" departPos="12.10" departSpeed="0.00" departDelay="0.00" arrival="580.00" arrivalLane="82885325_0" arrivalPos="12.07" arrivalSpeed="10.01" duration="580.00" routeLength="3163.62" waitingTime="26.00" waitingCount="7" stopTime="142.00" timeLoss="209.79" rerouteNo="0" devices="tripinfo_cd30b9b7-5752-482c-a455-5890e73a7e8e.0 emissions_cd30b9b7-5752-482c-a455-5890e73a7e8e.0 fcd_cd30b9b7-5752-482c-a455-5890e73a7e8e.0" vType="bus" speedFactor="1.00" vaporized="">
        <emissions CO_abs="14156.146091" CO2_abs="7388238.471416" HC_abs="2967.769699" PMx_abs="1477.268483" NOx_abs="61474.617655" fuel_abs="2337592.126477" electricity_abs="0"/>
    </tripinfo>
    <tripinfo id="a47585aa-0684-4895-adfb-8701e6cefc67.0" depart="0.00" departLane="65089046#1_0" departPos="12.10" departSpeed="0.00" departDelay="0.00" arrival="699.00" arrivalLane="304614463_0" arrivalPos="84.17" arrivalSpeed="5.48" duration="699.00" routeLength="3926.61" waitingTime="41.00" waitingCount="8" stopTime="169.00" timeLoss="225.97" rerouteNo="0" devices="tripinfo_a47585aa-0684-4895-adfb-8701e6cefc67.0 emissions_a47585aa-0684-4895-adfb-8701e6cefc67.0 fcd_a47585aa-0684-4895-adfb-8701e6cefc67.0" vType="bus" speedFactor="1.00" vaporized="">
        <emissions CO_abs="15799.886396" CO2_abs="7908735.162601" HC_abs="3403.915590" PMx_abs="1645.762047" NOx_abs="66820.965863" fuel_abs="2502225.489844" electricity_abs="0"/>
    </tripinfo>
    <tripinfo id="9db23d18-2cac-4591-b393-486514ef2adf.0" depart="6.00" departLane="492443599#1_0" departPos="12.10" departSpeed="0.00" departDelay="6.00" arrival="746.00" arrivalLane="-82899240#0_0" arrivalPos="112.48" arrivalSpeed="0.83" duration="740.00" routeLength="4008.76" waitingTime="138.00" waitingCount="16" stopTime="110.00" timeLoss="358.29" rerouteNo="0" devices="tripinfo_9db23d18-2cac-4591-b393-486514ef2adf.0 emissions_9db23d18-2cac-4591-b393-486514ef2adf.0 fcd_9db23d18-2cac-4591-b393-486514ef2adf.0" vType="bus" speedFactor="1.00" vaporized="">
        <emissions CO_abs="17644.805087" CO2_abs="8796487.212354" HC_abs="3809.543486" PMx_abs="1837.513470" NOx_abs="74435.638542" fuel_abs="2783092.640958" electricity_abs="0"/>
    </tripinfo>
    <tripinfo id="b4f6db5d-cadf-4194-8aac-85b48c36b0f3.0" depart="0.00" departLane="40972481#1_0" departPos="12.10" departSpeed="0.00" departDelay="0.00" arrival="919.00" arrivalLane="91011057#5_0" arrivalPos="48.71" arrivalSpeed="7.63" duration="919.00" routeLength="4939.05" waitingTime="13.00" waitingCount="3" stopTime="421.00" timeLoss="208.38" rerouteNo="0" devices="tripinfo_b4f6db5d-cadf-4194-8aac-85b48c36b0f3.0 emissions_b4f6db5d-cadf-4194-8aac-85b48c36b0f3.0 fcd_b4f6db5d-cadf-4194-8aac-85b48c36b0f3.0" vType="bus" speedFactor="1.00" vaporized="">
        <emissions CO_abs="22643.358606" CO2_abs="11340911.979155" HC_abs="4846.150341" PMx_abs="2356.708095" NOx_abs="95836.254459" fuel_abs="3588100.786820" electricity_abs="0"/>
    </tripinfo>
    <tripinfo id="e61e30f6-e884-41d7-9d88-ff98daac7417.0" depart="6.00" departLane="40972481#1_0" departPos="12.10" departSpeed="0.00" departDelay="6.00" arrival="938.00" arrivalLane="91011057#5_0" arrivalPos="48.71" arrivalSpeed="6.95" duration="932.00" routeLength="4939.05" waitingTime="251.00" waitingCount="17" stopTime="120.00" timeLoss="522.06" rerouteNo="0" devices="tripinfo_e61e30f6-e884-41d7-9d88-ff98daac7417.0 emissions_e61e30f6-e884-41d7-9d88-ff98daac7417.0 fcd_e61e30f6-e884-41d7-9d88-ff98daac7417.0" vType="bus" speedFactor="1.00" vaporized="">
        <emissions CO_abs="22656.645025" CO2_abs="11352454.441222" HC_abs="4835.599142" PMx_abs="2357.358891" NOx_abs="95933.419799" fuel_abs="3591743.933487" electricity_abs="0"/>
    </tripinfo>
    <tripinfo id="c0f73b34-11ff-405c-8792-f441458be8e9.0" depart="6.00" departLane="62203344_0" departPos="12.10" departSpeed="0.00" departDelay="6.00" arrival="946.00" arrivalLane="82898745#3_0" arrivalPos="109.95" arrivalSpeed="5.18" duration="940.00" routeLength="5282.70" waitingTime="117.00" waitingCount="11" stopTime="162.00" timeLoss="312.64" rerouteNo="0" devices="tripinfo_c0f73b34-11ff-405c-8792-f441458be8e9.0 emissions_c0f73b34-11ff-405c-8792-f441458be8e9.0 fcd_c0f73b34-11ff-405c-8792-f441458be8e9.0" vType="bus" speedFactor="1.00" vaporized="">
        <emissions CO_abs="19107.576117" CO2_abs="9085269.038206" HC_abs="4220.239310" PMx_abs="1984.293481" NOx_abs="78297.843688" fuel_abs="2874373.730160" electricity_abs="0"/>
    </tripinfo>
    <tripinfo id="1c8a9617-b2c8-4f2c-b7f9-6dbc69c9bc44.0" depart="11.00" departLane="62203344_0" departPos="12.10" departSpeed="0.00" departDelay="11.00" arrival="966.00" arrivalLane="82898745#3_0" arrivalPos="109.95" arrivalSpeed="5.62" duration="955.00" routeLength="5282.70" waitingTime="173.00" waitingCount="9" stopTime="130.00" timeLoss="358.77" rerouteNo="0" devices="tripinfo_1c8a9617-b2c8-4f2c-b7f9-6dbc69c9bc44.0 emissions_1c8a9617-b2c8-4f2c-b7f9-6dbc69c9bc44.0 fcd_1c8a9617-b2c8-4f2c-b7f9-6dbc69c9bc44.0" vType="bus" speedFactor="1.00" vaporized="">
        <emissions CO_abs="19671.861726" CO2_abs="9305948.513027" HC_abs="4364.720459" PMx_abs="2042.910054" NOx_abs="80348.611517" fuel_abs="2944189.533760" electricity_abs="0"/>
    </tripinfo>
    <tripinfo id="7b14964e-26ec-47ad-a74b-e649e44315fa.0" depart="22.00" departLane="62203344_0" departPos="12.10" departSpeed="0.00" departDelay="22.00" arrival="995.00" arrivalLane="82898745#3_0" arrivalPos="109.95" arrivalSpeed="5.47" duration="973.00" routeLength="5282.70" waitingTime="163.00" waitingCount="18" stopTime="120.00" timeLoss="386.67" rerouteNo="0" devices="tripinfo_7b14964e-26ec-47ad-a74b-e649e44315fa.0 emissions_7b14964e-26ec-47ad-a74b-e649e44315fa.0 fcd_7b14964e-26ec-47ad-a74b-e649e44315fa.0" vType="bus" speedFactor="1.00" vaporized="">
        <emissions CO_abs="20108.455344" CO2_abs="9469978.824716" HC_abs="4456.954244" PMx_abs="2086.827370" NOx_abs="81926.185746" fuel_abs="2996065.482979" electricity_abs="0"/>
    </tripinfo>
    <tripinfo id="352371cb-2b33-4631-a437-d3713886a182.0" depart="0.00" departLane="492443599#1_0" departPos="12.10" departSpeed="0.00" departDelay="0.00" arrival="1028.00" arrivalLane="42453894_0" arrivalPos="28.84" arrivalSpeed="1.05" duration="1028.00" routeLength="5597.98" waitingTime="93.00" waitingCount="10" stopTime="248.00" timeLoss="278.15" rerouteNo="0" devices="tripinfo_352371cb-2b33-4631-a437-d3713886a182.0 emissions_352371cb-2b33-4631-a437-d3713886a182.0 fcd_352371cb-2b33-4631-a437-d3713886a182.0" vType="bus" speedFactor="1.00" vaporized="">
        <emissions CO_abs="21155.346341" CO2_abs="9886700.657638" HC_abs="4714.028139" PMx_abs="2195.063332" NOx_abs="85780.830877" fuel_abs="3127896.898645" electricity_abs="0"/>
    </tripinfo>
    <tripinfo id="416bde7e-62d4-4950-92cb-3a8e6943f86a.0" depart="17.00" departLane="62203344_0" departPos="12.10" departSpeed="0.00" departDelay="17.00" arrival="1092.00" arrivalLane="82898745#3_0" arrivalPos="109.95" arrivalSpeed="5.63" duration="1075.00" routeLength="5282.70" waitingTime="233.00" waitingCount="17" stopTime="130.00" timeLoss="479.02" rerouteNo="0" devices="tripinfo_416bde7e-62d4-4950-92cb-3a8e6943f86a.0 emissions_416bde7e-62d4-4950-92cb-3a8e6943f86a.0 fcd_416bde7e-62d4-4950-92cb-3a8e6943f86a.0" vType="bus" speedFactor="1.00" vaporized="">
        <emissions CO_abs="22485.280402" CO2_abs="10311749.634192" HC_abs="5003.015841" PMx_abs="2327.384775" NOx_abs="90205.278660" fuel_abs="3262291.759227" electricity_abs="0"/>
    </tripinfo>
    <tripinfo id="1de3c5ff-a699-4e86-a185-bceef3d1fcce.0" depart="0.00" departLane="62203344_0" departPos="12.10" departSpeed="0.00" departDelay="0.00" arrival="1144.00" arrivalLane="173949867#2_0" arrivalPos="54.59" arrivalSpeed="6.43" duration="1144.00" routeLength="6421.20" waitingTime="17.00" waitingCount="9" stopTime="457.00" timeLoss="275.44" rerouteNo="0" devices="tripinfo_1de3c5ff-a699-4e86-a185-bceef3d1fcce.0 emissions_1de3c5ff-a699-4e86-a185-bceef3d1fcce.0 fcd_1de3c5ff-a699-4e86-a185-bceef3d1fcce.0" vType="bus" speedFactor="1.00" vaporized="">
        <emissions CO_abs="27642.626169" CO2_abs="13901641.493632" HC_abs="5961.100056" PMx_abs="2881.427048" NOx_abs="117222.207288" fuel_abs="4398334.653080" electricity_abs="0"/>
    </tripinfo>
    <tripinfo id="b034a409-5bcb-40a3-887f-a5f0378922d0.0" depart="27.00" departLane="62203344_0" departPos="12.10" departSpeed="0.00" departDelay="27.00" arrival="1156.00" arrivalLane="42453894_0" arrivalPos="28.84" arrivalSpeed="1.03" duration="1129.00" routeLength="5766.23" waitingTime="177.00" waitingCount="22" stopTime="160.00" timeLoss="450.69" rerouteNo="0" devices="tripinfo_b034a409-5bcb-40a3-887f-a5f0378922d0.0 emissions_b034a409-5bcb-40a3-887f-a5f0378922d0.0 fcd_b034a409-5bcb-40a3-887f-a5f0378922d0.0" vType="bus" speedFactor="1.00" vaporized="">
        <emissions CO_abs="23347.210228" CO2_abs="10852569.091679" HC_abs="5164.558449" PMx_abs="2418.506545" NOx_abs="94424.560813" fuel_abs="3433421.043446" electricity_abs="0"/>
    </tripinfo>
    <tripinfo id="3fa13650-488b-4bc0-90da-251c8687b081.0" depart="0.00" departLane="48548017_0" departPos="12.10" departSpeed="0.00" departDelay="0.00" arrival="1347.00" arrivalLane="-82899240#0_0" arrivalPos="112.48" arrivalSpeed="0.81" duration="1347.00" routeLength="7474.89" waitingTime="63.00" waitingCount="14" stopTime="390.00" timeLoss="366.11" rerouteNo="0" devices="tripinfo_3fa13650-488b-4bc0-90da-251c8687b081.0 emissions_3fa13650-488b-4bc0-90da-251c8687b081.0 fcd_3fa13650-488b-4bc0-90da-251c8687b081.0" vType="bus" speedFactor="1.00" vaporized="">
        <emissions CO_abs="30246.751406" CO2_abs="14899384.523547" HC_abs="6572.257452" PMx_abs="3147.814089" NOx_abs="126652.476821" fuel_abs="4713936.551881" electricity_abs="0"/>
    </tripinfo>
    <tripinfo id="2ccd62c5-7f16-4550-9090-356d133b0bb0.0" depart="221.00" departLane="-173949867#2_0" departPos="12.10" departSpeed="0.00" departDelay="0.00" arrival="1386.00" arrivalLane="45421575#5_0" arrivalPos="107.32" arrivalSpeed="4.41" duration="1165.00" routeLength="6524.64" waitingTime="33.00" waitingCount="5" stopTime="437.00" timeLoss="316.58" rerouteNo="0" devices="tripinfo_2ccd62c5-7f16-4550-9090-356d133b0bb0.0 emissions_2ccd62c5-7f16-4550-9090-356d133b0bb0.0 fcd_2ccd62c5-7f16-4550-9090-356d133b0bb0.0" vType="bus" speedFactor="1.00" vaporized="">
        <emissions CO_abs="28348.450800" CO2_abs="14360038.780040" HC_abs="6087.137988" PMx_abs="2956.054664" NOx_abs="120762.310300" fuel_abs="4543383.564425" electricity_abs="0"/>
    </tripinfo>
    <tripinfo id="07a0659f-ed9c-48fb-8483-1078587065dd.0" depart="951.00" departLane="-82885325_0" departPos="12.07" departSpeed="0.00" departDelay="0.00" arrival="1561.00" arrivalLane="39525772#3_0" arrivalPos="41.65" arrivalSpeed="7.76" duration="610.00" routeLength="3269.49" waitingTime="46.00" waitingCount="8" stopTime="141.00" timeLoss="252.99" rerouteNo="0" devices="tripinfo_07a0659f-ed9c-48fb-8483-1078587065dd.0 emissions_07a0659f-ed9c-48fb-8483-1078587065dd.0 fcd_07a0659f-ed9c-48fb-8483-1078587065dd.0" vType="bus" speedFactor="1.00" vaporized="">
        <emissions CO_abs="15047.009800" CO2_abs="7790202.125478" HC_abs="3157.223480" PMx_abs="1568.741246" NOx_abs="65026.651238" fuel_abs="2464750.544415" electricity_abs="0"/>
    </tripinfo>
    <tripinfo id="bc5121e5-0ad2-4094-a6f3-becd15cc3657.0" depart="441.00" departLane="-91011057#5_0" departPos="12.10" departSpeed="0.00" departDelay="0.00" arrival="1572.00" arrivalLane="40972481#1_0" arrivalPos="99.50" arrivalSpeed="9.86" duration="1131.00" routeLength="5801.73" waitingTime="103.00" waitingCount="11" stopTime="400.00" timeLoss="369.87" rerouteNo="0" devices="tripinfo_bc5121e5-0ad2-4094-a6f3-becd15cc3657.0 emissions_bc5121e5-0ad2-4094-a6f3-becd15cc3657.0 fcd_bc5121e5-0ad2-4094-a6f3-becd15cc3657.0" vType="bus" speedFactor="1.00" vaporized="">
        <emissions CO_abs="27000.819392" CO2_abs="13235468.907081" HC_abs="5810.855737" PMx_abs="2804.679327" NOx_abs="112807.106688" fuel_abs="4187431.438024" electricity_abs="0"/>
    </tripinfo>
    <tripinfo id="2aafe817-a0de-4410-b301-3d1514f79361.0" depart="0.00" departLane="402801839#0_0" departPos="12.10" departSpeed="0.00" departDelay="0.00" arrival="1665.00" arrivalLane="406089757#3_0" arrivalPos="89.98" arrivalSpeed="0.90" duration="1665.00" routeLength="9245.47" waitingTime="49.00" waitingCount="12" stopTime="463.00" timeLoss="441.76" rerouteNo="0" devices="tripinfo_2aafe817-a0de-4410-b301-3d1514f79361.0 emissions_2aafe817-a0de-4410-b301-3d1514f79361.0 fcd_2aafe817-a0de-4410-b301-3d1514f79361.0" vType="bus" speedFactor="1.00" vaporized="">
        <emissions CO_abs="36451.835963" CO2_abs="18097984.883028" HC_abs="7875.783542" PMx_abs="3794.462829" NOx_abs="153396.985981" fuel_abs="5725941.422456" electricity_abs="0"/>
    </tripinfo>
    <tripinfo id="fce9118b-9424-4745-a888-88ce0171e4b4.0" depart="1053.00" departLane="559195754#4_0" departPos="12.10" departSpeed="0.00" departDelay="0.00" arrival="1818.00" arrivalLane="492478500#1_0" arrivalPos="89.07" arrivalSpeed="8.06" duration="765.00" routeLength="4140.48" waitingTime="69.00" waitingCount="11" stopTime="183.00" timeLoss="297.02" rerouteNo="0" devices="tripinfo_fce9118b-9424-4745-a888-88ce0171e4b4.0 emissions_fce9118b-9424-4745-a888-88ce0171e4b4.0 fcd_fce9118b-9424-4745-a888-88ce0171e4b4.0" vType="bus" speedFactor="1.00" vaporized="">
        <emissions CO_abs="18516.008740" CO2_abs="9370781.405716" HC_abs="3959.096615" PMx_abs="1929.464571" NOx_abs="78854.911567" fuel_abs="2964812.403995" electricity_abs="0"/>
    </tripinfo>
    <tripinfo id="c5aa3540-f91f-4f90-9ff2-7ef433c0bf1f.0" depart="0.00" departLane="824632704#0_0" departPos="12.10" departSpeed="0.00" departDelay="0.00" arrival="1891.00" arrivalLane="42453894_0" arrivalPos="28.84" arrivalSpeed="1.04" duration="1891.00" routeLength="10422.08" waitingTime="134.00" waitingCount="20" stopTime="443.00" timeLoss="526.77" rerouteNo="0" devices="tripinfo_c5aa3540-f91f-4f90-9ff2-7ef433c0bf1f.0 emissions_c5aa3540-f91f-4f90-9ff2-7ef433c0bf1f.0 fcd_c5aa3540-f91f-4f90-9ff2-7ef433c0bf1f.0" vType="bus" speedFactor="1.00" vaporized="">
        <emissions CO_abs="39948.618110" CO2_abs="19235361.735954" HC_abs="8785.770436" PMx_abs="4152.553956" NOx_abs="164942.336769" fuel_abs="6085693.839758" electricity_abs="0"/>
    </tripinfo>
    <tripinfo id="6367dc8d-1cc2-4aac-b106-eaa957b8bdc8.0" depart="0.00" departLane="74346301#3_0" departPos="12.10" departSpeed="0.00" departDelay="0.00" arrival="1910.00" arrivalLane="304614463_0" arrivalPos="84.17" arrivalSpeed="4.71" duration="1910.00" routeLength="10652.44" waitingTime="166.00" waitingCount="23" stopTime="380.00" timeLoss="660.82" rerouteNo="0" devices="tripinfo_6367dc8d-1cc2-4aac-b106-eaa957b8bdc8.0 emissions_6367dc8d-1cc2-4aac-b106-eaa957b8bdc8.0 fcd_6367dc8d-1cc2-4aac-b106-eaa957b8bdc8.0" vType="bus" speedFactor="1.00" vaporized="">
        <emissions CO_abs="42442.362760" CO2_abs="21111302.618290" HC_abs="9183.202162" PMx_abs="4419.924853" NOx_abs="178784.504527" fuel_abs="6679336.227436" electricity_abs="0"/>
    </tripinfo>
    <tripinfo id="830b2571-0a91-4c2b-bd59-baeb4c0907dc.0" depart="999.00" departLane="42453893_0" departPos="12.10" departSpeed="0.00" departDelay="0.00" arrival="2059.00" arrivalLane="492478500#1_0" arrivalPos="89.07" arrivalSpeed="8.21" duration="1060.00" routeLength="5670.32" waitingTime="78.00" waitingCount="11" stopTime="223.00" timeLoss="321.20" rerouteNo="0" devices="tripinfo_830b2571-0a91-4c2b-bd59-baeb4c0907dc.0 emissions_830b2571-0a91-4c2b-bd59-baeb4c0907dc.0 fcd_830b2571-0a91-4c2b-bd59-baeb4c0907dc.0" vType="bus" speedFactor="1.00" vaporized="">
        <emissions CO_abs="22218.492395" CO2_abs="10586163.103392" HC_abs="4884.444765" PMx_abs="2306.459813" NOx_abs="91181.984509" fuel_abs="3349212.824514" electricity_abs="0"/>
    </tripinfo>
    <tripinfo id="9d06f2e7-b8c6-43a7-8377-c3d4b5464292.0" depart="1063.00" departLane="-91011057#5_0" departPos="12.10" departSpeed="0.00" departDelay="0.00" arrival="2165.00" arrivalLane="40972481#1_0" arrivalPos="99.50" arrivalSpeed="9.82" duration="1102.00" routeLength="5801.73" waitingTime="25.00" waitingCount="7" stopTime="462.00" timeLoss="279.18" rerouteNo="0" devices="tripinfo_9d06f2e7-b8c6-43a7-8377-c3d4b5464292.0 emissions_9d06f2e7-b8c6-43a7-8377-c3d4b5464292.0 fcd_9d06f2e7-b8c6-43a7-8377-c3d4b5464292.0" vType="bus" speedFactor="1.00" vaporized="">
        <emissions CO_abs="26396.761187" CO2_abs="13093026.274951" HC_abs="5659.254258" PMx_abs="2744.609664" NOx_abs="111074.518979" fuel_abs="4142405.531983" electricity_abs="0"/>
    </tripinfo>
    <tripinfo id="184837d5-c893-495c-8c3a-da2987f90f5e.0" depart="145.00" departLane="-82885325_0" departPos="12.07" departSpeed="0.00" departDelay="0.00" arrival="2177.00" arrivalLane="406089757#3_0" arrivalPos="89.98" arrivalSpeed="0.99" duration="2032.00" routeLength="11295.74" waitingTime="122.00" waitingCount="20" stopTime="499.00" timeLoss="647.53" rerouteNo="0" devices="tripinfo_184837d5-c893-495c-8c3a-da2987f90f5e.0 emissions_184837d5-c893-495c-8c3a-da2987f90f5e.0 fcd_184837d5-c893-495c-8c3a-da2987f90f5e.0" vType="bus" speedFactor="1.00" vaporized="">
        <emissions CO_abs="46049.426141" CO2_abs="23304042.760054" HC_abs="9842.497554" PMx_abs="4798.315394" NOx_abs="196111.650317" fuel_abs="7373140.001799" electricity_abs="0"/>
    </tripinfo>
    <tripinfo id="6eb65328-4544-4e01-8895-869587c7bf32.0" depart="728.00" departLane="-406089757#3_0" departPos="12.10" departSpeed="0.00" departDelay="0.00" arrival="2183.00" arrivalLane="402801839#0_0" arrivalPos="41.03" arrivalSpeed="6.23" duration="1455.00" routeLength="8131.82" waitingTime="29.00" waitingCount="6" stopTime="438.00" timeLoss="346.14" rerouteNo="0" devices="tripinfo_6eb65328-4544-4e01-8895-869587c7bf32.0 emissions_6eb65328-4544-4e01-8895-869587c7bf32.0 fcd_6eb65328-4544-4e01-8895-869587c7bf32.0" vType="bus" speedFactor="1.00" vaporized="">
        <emissions CO_abs="31312.303428" CO2_abs="15226290.656581" HC_abs="6846.921782" PMx_abs="3256.243115" NOx_abs="130075.993487" fuel_abs="4817326.074294" electricity_abs="0"/>
    </tripinfo>
    <tripinfo id="623d801c-294c-41c9-8de6-6d5f952f8422.0" depart="0.00" departLane="50562506#5_0" departPos="12.10" departSpeed="0.00" departDelay="0.00" arrival="2253.00" arrivalLane="405149366#12_0" arrivalPos="82.55" arrivalSpeed="0.94" duration="2253.00" routeLength="12667.87" waitingTime="171.00" waitingCount="32" stopTime="437.00" timeLoss="754.81" rerouteNo="0" devices="tripinfo_623d801c-294c-41c9-8de6-6d5f952f8422.0 emissions_623d801c-294c-41c9-8de6-6d5f952f8422.0 fcd_623d801c-294c-41c9-8de6-6d5f952f8422.0" vType="bus" speedFactor="1.00" vaporized="">
        <emissions CO_abs="50039.843848" CO2_abs="24880747.451690" HC_abs="10841.999127" PMx_abs="5211.828448" NOx_abs="210721.768389" fuel_abs="7871946.808540" electricity_abs="0"/>
    </tripinfo>
    <tripinfo id="81c05d8d-2035-417c-8c53-e7f1c86c09ca.0" depart="0.00" departLane="274816536#1_0" departPos="12.10" departSpeed="0.00" departDelay="0.00" arrival="2264.00" arrivalLane="50365112#0_0" arrivalPos="98.75" arrivalSpeed="13.31" duration="2264.00" routeLength="12224.07" waitingTime="180.00" waitingCount="22" stopTime="531.00" timeLoss="689.70" rerouteNo="0" devices="tripinfo_81c05d8d-2035-417c-8c53-e7f1c86c09ca.0 emissions_81c05d8d-2035-417c-8c53-e7f1c86c09ca.0 fcd_81c05d8d-2035-417c-8c53-e7f1c86c09ca.0" vType="bus" speedFactor="1.00" vaporized="">
        <emissions CO_abs="48542.197117" CO2_abs="23578951.451525" HC_abs="10583.266460" PMx_abs="5045.331785" NOx_abs="201562.220133" fuel_abs="7459924.601896" electricity_abs="0"/>
    </tripinfo>
    <tripinfo id="2425ea4c-3643-4cb9-8018-9deeec89290c.0" depart="5.00" departLane="48503911#3_0" departPos="12.10" departSpeed="0.00" departDelay="5.00" arrival="2337.00" arrivalLane="534903496#10_0" arrivalPos="183.03" arrivalSpeed="13.08" duration="2332.00" routeLength="13255.39" waitingTime="139.00" waitingCount="27" stopTime="470.00" timeLoss="720.75" rerouteNo="0" devices="tripinfo_2425ea4c-3643-4cb9-8018-9deeec89290c.0 emissions_2425ea4c-3643-4cb9-8018-9deeec89290c.0 fcd_2425ea4c-3643-4cb9-8018-9deeec89290c.0" vType="bus" speedFactor="1.00" vaporized="">
        <emissions CO_abs="50698.898578" CO2_abs="25148343.059694" HC_abs="11017.139565" PMx_abs="5280.961303" NOx_abs="213158.034735" fuel_abs="7956614.136565" electricity_abs="0"/>
    </tripinfo>
    <tripinfo id="dab6ab5f-227a-44db-adc1-1946d9e1dc41.0" depart="0.00" departLane="160683005#2_0" departPos="12.10" departSpeed="0.00" departDelay="0.00" arrival="2396.00" arrivalLane="-825883866#1_0" arrivalPos="75.04" arrivalSpeed="9.79" duration="2396.00" routeLength="13323.82" waitingTime="102.00" waitingCount="32" stopTime="636.00" timeLoss="740.51" rerouteNo="0" devices="tripinfo_dab6ab5f-227a-44db-adc1-1946d9e1dc41.0 emissions_dab6ab5f-227a-44db-adc1-1946d9e1dc41.0 fcd_dab6ab5f-227a-44db-adc1-1946d9e1dc41.0" vType="bus" speedFactor="1.00" vaporized="">
        <emissions CO_abs="55279.778919" CO2_abs="27972756.228859" HC_abs="11849.934113" PMx_abs="5762.268850" NOx_abs="235366.064159" fuel_abs="8850295.247679" electricity_abs="0"/>
    </tripinfo>
    <tripinfo id="969467ca-13e7-4eb9-9e2c-018a16bbbaa2.0" depart="0.00" departLane="227065900#13_0" departPos="12.10" departSpeed="0.00" departDelay="0.00" arrival="2415.00" arrivalLane="-82899240#0_0" arrivalPos="112.48" arrivalSpeed="1.14" duration="2415.00" routeLength="13265.90" waitingTime="99.00" waitingCount="25" stopTime="714.00" timeLoss="653.33" rerouteNo="0" devices="tripinfo_969467ca-13e7-4eb9-9e2c-018a16bbbaa2.0 emissions_969467ca-13e7-4eb9-9e2c-018a16bbbaa2.0 fcd_969467ca-13e7-4eb9-9e2c-018a16bbbaa2.0" vType="bus" speedFactor="1.00" vaporized="">
        <emissions CO_abs="53994.427997" CO2_abs="26477868.250339" HC_abs="11743.080228" PMx_abs="5616.791065" NOx_abs="225483.638311" fuel_abs="8377155.799867" electricity_abs="0"/>
    </tripinfo>
    <tripinfo id="406d40f5-308d-4373-a676-26d2d32de383.0" depart="0.00" departLane="-47198322#14_0" departPos="12.10" departSpeed="0.00" departDelay="0.00" arrival="2430.00" arrivalLane="510583030#3_0" arrivalPos="145.79" arrivalSpeed="13.44" duration="2430.00" routeLength="13585.18" waitingTime="108.00" waitingCount="17" stopTime="657.00" timeLoss="657.82" rerouteNo="0" devices="tripinfo_406d40f5-308d-4373-a676-26d2d32de383.0 emissions_406d40f5-308d-4373-a676-26d2d32de383.0 fcd_406d40f5-308d-4373-a676-26d2d32de383.0" vType="bus" speedFactor="1.00" vaporized="">
        <emissions CO_abs="54623.131679" CO2_abs="27165460.809201" HC_abs="11811.328470" PMx_abs="5687.822837" NOx_abs="230080.719689" fuel_abs="8594784.087247" electricity_abs="0"/>
    </tripinfo>
    <tripinfo id="6b06b2cc-0e5b-4ab0-85ec-da8fc07358a4.0" depart="1375.00" departLane="42453893_0" departPos="12.10" departSpeed="0.00" departDelay="0.00" arrival="2448.00" arrivalLane="492478500#1_0" arrivalPos="89.07" arrivalSpeed="7.77" duration="1073.00" routeLength="5670.32" waitingTime="123.00" waitingCount="16" stopTime="198.00" timeLoss="358.71" rerouteNo="0" devices="tripinfo_6b06b2cc-0e5b-4ab0-85ec-da8fc07358a4.0 emissions_6b06b2cc-0e5b-4ab0-85ec-da8fc07358a4.0 fcd_6b06b2cc-0e5b-4ab0-85ec-da8fc07358a4.0" vType="bus" speedFactor="1.00" vaporized="">
        <emissions CO_abs="22453.681248" CO2_abs="10612039.623855" HC_abs="4946.129420" PMx_abs="2329.236124" NOx_abs="91706.115577" fuel_abs="3357375.158961" electricity_abs="0"/>
    </tripinfo>
    <tripinfo id="d6db1719-05d6-44e2-bd60-4ce5eed286fb.0" depart="18.00" departLane="402801839#0_0" departPos="12.10" departSpeed="0.00" departDelay="18.00" arrival="2458.00" arrivalLane="211405705#18_0" arrivalPos="143.38" arrivalSpeed="13.52" duration="2440.00" routeLength="13774.14" waitingTime="68.00" waitingCount="18" stopTime="834.00" timeLoss="628.09" rerouteNo="0" devices="tripinfo_d6db1719-05d6-44e2-bd60-4ce5eed286fb.0 emissions_d6db1719-05d6-44e2-bd60-4ce5eed286fb.0 fcd_d6db1719-05d6-44e2-bd60-4ce5eed286fb.0" vType="bus" speedFactor="1.00" vaporized="">
        <emissions CO_abs="56527.139561" CO2_abs="28094035.087935" HC_abs="12225.785497" PMx_abs="5885.559068" NOx_abs="238010.246431" fuel_abs="8888565.260327" electricity_abs="0"/>
    </tripinfo>
    <tripinfo id="f613630e-01d4-40b6-bb73-791a97e10702.0" depart="0.00" departLane="-405149366#12_0" departPos="12.10" departSpeed="0.00" departDelay="0.00" arrival="2494.00" arrivalLane="310114805#10_0" arrivalPos="7.48" arrivalSpeed="5.32" duration="2494.00" routeLength="13663.98" waitingTime="103.00" waitingCount="31" stopTime="635.00" timeLoss="691.97" rerouteNo="0" devices="tripinfo_f613630e-01d4-40b6-bb73-791a97e10702.0 emissions_f613630e-01d4-40b6-bb73-791a97e10702.0 fcd_f613630e-01d4-40b6-bb73-791a97e10702.0" vType="bus" speedFactor="1.00" vaporized="">
        <emissions CO_abs="54060.737136" CO2_abs="26321080.771034" HC_abs="11777.255421" PMx_abs="5619.950809" NOx_abs="224794.424628" fuel_abs="8327496.882620" electricity_abs="0"/>
    </tripinfo>
    <tripinfo id="3c74712f-2a60-4568-ba00-6685c3184f67.0" depart="1521.00" departLane="-82898745#3_0" departPos="12.10" departSpeed="0.00" departDelay="0.00" arrival="2508.00" arrivalLane="492478500#1_0" arrivalPos="89.07" arrivalSpeed="8.08" duration="987.00" routeLength="5254.98" waitingTime="84.00" waitingCount="11" stopTime="213.00" timeLoss="309.22" rerouteNo="0" devices="tripinfo_3c74712f-2a60-4568-ba00-6685c3184f67.0 emissions_3c74712f-2a60-4568-ba00-6685c3184f67.0 fcd_3c74712f-2a60-4568-ba00-6685c3184f67.0" vType="bus" speedFactor="1.00" vaporized="">
        <emissions CO_abs="20850.126545" CO2_abs="9964680.724524" HC_abs="4575.621915" PMx_abs="2164.704078" NOx_abs="85727.947800" fuel_abs="3152595.546249" electricity_abs="0"/>
    </tripinfo>
    <tripinfo id="7a3cf57b-c945-4f68-849d-4b759f52b569.0" depart="0.00" departLane="-304749757_0" departPos="12.10" departSpeed="0.00" departDelay="0.00" arrival="2571.00" arrivalLane="1055114601#2_0" arrivalPos="78.89" arrivalSpeed="7.77" duration="2571.00" routeLength="14361.39" waitingTime="89.00" waitingCount="23" stopTime="608.00" timeLoss="683.89" rerouteNo="0" devices="tripinfo_7a3cf57b-c945-4f68-849d-4b759f52b569.0 emissions_7a3cf57b-c945-4f68-849d-4b759f52b569.0 fcd_7a3cf57b-c945-4f68-849d-4b759f52b569.0" vType="bus" speedFactor="1.00" vaporized="">
        <emissions CO_abs="54570.835010" CO2_abs="26748243.910357" HC_abs="11893.620167" PMx_abs="5678.046202" NOx_abs="227798.406284" fuel_abs="8462713.386325" electricity_abs="0"/>
    </tripinfo>
    <tripinfo id="f75dd3fb-35b5-4359-a8a6-09ac6d510e24.0" depart="0.00" departLane="-542395238_0" departPos="12.10" departSpeed="0.00" departDelay="0.00" arrival="2604.00" arrivalLane="-304749757_0" arrivalPos="119.93" arrivalSpeed="12.94" duration="2604.00" routeLength="14547.61" waitingTime="138.00" waitingCount="37" stopTime="565.00" timeLoss="770.12" rerouteNo="0" devices="tripinfo_f75dd3fb-35b5-4359-a8a6-09ac6d510e24.0 emissions_f75dd3fb-35b5-4359-a8a6-09ac6d510e24.0 fcd_f75dd3fb-35b5-4359-a8a6-09ac6d510e24.0" vType="bus" speedFactor="1.00" vaporized="">
        <emissions CO_abs="56963.289773" CO2_abs="28109654.156925" HC_abs="12385.353943" PMx_abs="5930.062497" NOx_abs="238760.998817" fuel_abs="8893487.511583" electricity_abs="0"/>
    </tripinfo>
    <tripinfo id="edcf7bb2-6d4e-449f-b3b5-0e91048a648b.0" depart="5.00" departLane="65123855#3_0" departPos="12.10" departSpeed="0.00" departDelay="5.00" arrival="2608.00" arrivalLane="-534903500#19_0" arrivalPos="109.14" arrivalSpeed="13.17" duration="2603.00" routeLength="14466.08" waitingTime="122.00" waitingCount="22" stopTime="610.00" timeLoss="667.02" rerouteNo="0" devices="tripinfo_edcf7bb2-6d4e-449f-b3b5-0e91048a648b.0 emissions_edcf7bb2-6d4e-449f-b3b5-0e91048a648b.0 fcd_edcf7bb2-6d4e-449f-b3b5-0e91048a648b.0" vType="bus" speedFactor="1.00" vaporized="">
        <emissions CO_abs="53592.698190" CO2_abs="25946071.779204" HC_abs="11747.944273" PMx_abs="5572.074632" NOx_abs="222026.256891" fuel_abs="8208853.745959" electricity_abs="0"/>
    </tripinfo>